# ----------------------------
# Program Options
# ----------------------------

NAME         ?= DEMO
ICON         ?= iconc.png
DESCRIPTION  ?= "C SDK Demo"
COMPRESSED   ?= NO
ARCHIVED     ?= NO

# ----------------------------
# Compile Options
# ----------------------------

OPT_MODE     ?= -Oz
EXTRA_CFLAGS ?= -Wall -Wextra

# ----------------------------
# Debug Options
# ----------------------------

OUTPUT_MAP   ?= YES

# Forces main makefile in $CEDEV/examples to "make debug"
.DEFAULT_GOAL := debug

include $(CEDEV)/include/.makefile
